 Gaussian 16, Revision C.01,
 Gaussian 16:  ES64L-G16RevC.01  3-Jul-2019

 -----------------------------
 #rMN15L Def2TZVP/W06 opt freq
 -----------------------------

 -----
 Title
 -----
 Symbolic Z-matrix:
 Charge =  0 Multiplicity = 1

 SCF Done:  E(RMN15L) =  -232.122050377     A.U. after   12 cycles
 SCF Done:  E(RMN15L) =  -232.122409204     A.U. after   10 cycles
 SCF Done:  E(RMN15L) =  -232.122412449     A.U. after    6 cycles
 Optimization completed.
    -- Stationary point found.
 Normal termination of Gaussian 16 at Wed Nov 25 11:46:52 2020.

 ----------------------------------------------------------------------
 #N Geom=AllCheck Guess=TCheck SCRF=Check GenChk RMN15L/def2TZVP/W06 Fr
 eq
 ----------------------------------------------------------------------

 Structure from the checkpoint file:  "/scratch/cnt0021/sis6494/enicolas/gaussian/11374471/Gau-57666.chk"
 -----
 Title
 -----
 Charge =  0 Multiplicity = 1

                         Standard orientation:
 ---------------------------------------------------------------------
 Center     Atomic      Atomic             Coordinates (Angstroms)
 Number     Number       Type             X           Y           Z
 ---------------------------------------------------------------------
      1          6           0        0.163296   -1.390546    0.000000
      2          6           0       -1.122669   -0.836681    0.000009
      3          6           0       -1.285976    0.553863   -0.000008
      4          6           0       -0.163272    1.390549    0.000001
      5          6           0        1.122655    0.836699    0.000008
      6          6           0        1.285967   -0.553884   -0.000008
      7          1           0        0.290873   -2.477613   -0.000006
      8          1           0       -2.000235   -1.490794    0.000008
      9          1           0       -2.291185    0.986928   -0.000017
     10          1           0       -0.290919    2.477608   -0.000001
     11          1           0        2.000262    1.490757    0.000003
     12          1           0        2.291202   -0.986887   -0.000009
 ---------------------------------------------------------------------

 SCF Done:  E(RMN15L) =  -232.122412449     A.U. after    1 cycles

 The electronic state is 1-A.
 Alpha  occ. eigenvalues --  -10.14050 -10.14031 -10.14031 -10.13987 -10.13987
 Alpha  occ. eigenvalues --  -10.13966  -0.85291  -0.74165  -0.74163  -0.58983
 Alpha  occ. eigenvalues --   -0.58983  -0.50197  -0.44094  -0.42281  -0.39681
 Alpha  occ. eigenvalues --   -0.39679  -0.34903  -0.31703  -0.31702  -0.23712
 Alpha  occ. eigenvalues --   -0.23710
 Alpha virt. eigenvalues --   -0.02547  -0.02547   0.03924   0.07831   0.07831
 Alpha virt. eigenvalues --    0.10540   0.10540   0.12349   0.13529   0.15266
 Alpha virt. eigenvalues --    0.21628   0.21772   0.21773   0.22416   0.24093

 Mulliken charges:
               1
     1  C   -0.068010
     2  C   -0.067668
     3  C   -0.068033
     4  C   -0.068010
     5  C   -0.067666
     6  C   -0.068030
     7  H    0.067896
     8  H    0.067909
     9  H    0.067904
    10  H    0.067896
    11  H    0.067909
    12  H    0.067904
 Sum of Mulliken charges =   0.00000

 Dipole moment (field-independent basis, Debye):
    X=              0.0000    Y=             -0.0000    Z=             -0.0000  Tot=              0.0000
 Quadrupole moment (field-independent basis, Debye-Ang):
   XX=            -32.8254   YY=            -32.8263   ZZ=            -40.4548
   XY=             -0.0002   XZ=              0.0000   YZ=             -0.0000

  Exact polarizability:      81.097      -0.016      81.116      -0.000       0.000      39.350
 Approx polarizability:     147.796       0.000     147.790      -0.000       0.000      62.531

                      1                      2                      3
                      A                      A                      A
 Frequencies --    405.4031               405.5079               606.1021
 Red. masses --      3.0142                 3.0148                 5.9086
 Frc consts  --      0.2919                 0.2921                 1.2789
 IR Inten    --      0.0000                 0.0000                 0.0000

                      4                      5                      6
                      A                      A                      A
 Frequencies --    606.3091               686.6994               718.8149
 Red. masses --      5.9093                 1.0848                 4.7908
 Frc consts  --      1.2799                 0.3014                 1.4585
 IR Inten    --      0.0000               100.5847                 0.0000

                      7                      8                      9
                      A                      A                      A
 Frequencies --    866.1399               866.3717               954.9805
 Red. masses --      1.2486                 1.2486                 1.3445
 Frc consts  --      0.5519                 0.5522                 0.7224
 IR Inten    --      0.0000                 0.0000                 0.0000

                     10                     11                     12
                      A                      A                      A
 Frequencies --    955.2388               992.8568              1019.6540
 Red. masses --      1.3443                 1.1536                 6.6601
 Frc consts  --      0.7227                 0.6700                 4.0798
 IR Inten    --      0.0000                 0.0000                 0.0000

                     13                     14                     15
                      A                      A                      A
 Frequencies --   1019.7463              1068.1904              1068.7203
 Red. masses --      5.9989                 1.6826                 1.6800
 Frc consts  --      3.6754                 1.1312                 1.1306
 IR Inten    --      0.0000                 2.5035                 2.4653

                     16                     17                     18
                      A                      A                      A
 Frequencies --   1165.9059              1199.5358              1199.6135
 Red. masses --      1.0453                 1.1317                 1.1314
 Frc consts  --      0.8372                 0.9594                 0.9593
 IR Inten    --      0.0002                 0.0000                 0.0000

                     19                     20                     21
                      A                      A                      A
 Frequencies --   1369.3210              1372.5106              1514.1945
 Red. masses --      8.4069                 1.2486                 2.0386
 Frc consts  --      9.2874                 1.3858                 2.7539
 IR Inten    --      0.0000                 0.0000                 5.2526

                     22                     23                     24
                      A                      A                      A
 Frequencies --   1514.6518              1645.4238              1645.9711
 Red. masses --      2.0423                 5.6278                 5.6357
 Frc consts  --      2.7606                 8.9773                 8.9958
 IR Inten    --      5.2476                 0.0000                 0.0000

                     25                     26                     27
                      A                      A                      A
 Frequencies --   3147.8669              3159.8700              3160.4127
 Red. masses --      1.0806                 1.0863                 1.0862
 Frc consts  --      6.3088                 6.3903                 6.3923
 IR Inten    --      0.0007                 0.0000                 0.0000

                     28                     29                     30
                      A                      A                      A
 Frequencies --   3178.0947              3178.7052              3189.3591
 Red. masses --      1.0959                 1.0959                 1.1003
 Frc consts  --      6.5214                 6.5238                 6.5941
 IR Inten    --     50.5780                51.3346                 0.0000

 - Thermochemistry -
 -------------------
 Temperature   298.150 Kelvin.  Pressure   1.00000 Atm.
 Atom     1 has atomic number  6 and mass  12.00000

 Molecular mass:    78.04695 amu.
 Principal axes and moments of inertia in atomic units:
                           1         2         3
     Eigenvalues --   319.20579 319.23373 638.43952
           X            1.00000  -0.00027   0.00000
           Y            0.00027   1.00000  -0.00000
           Z           -0.00000   0.00000   1.00000
 This molecule is an asymmetric top.
 Rotational symmetry number  1.
 Rotational temperatures (Kelvin)      0.27134     0.27132     0.13567
 Rotational constants (GHZ):           5.65385     5.65335     2.82680
 Zero-point vibrational energy     262473.7 (Joules/Mol)
                                   62.73271 (Kcal/Mol)
 Warning -- explicit consideration of   4 degrees of freedom as
           vibrations may cause significant error
 Vibrational temperatures:    583.28   583.44   872.05   872.34   988.01
          (Kelvin)           1034.21  1246.18  1246.52  1374.00  1374.38
                             1428.50  1467.05  1467.19  1536.89  1537.65
                             1677.48  1725.86  1725.98  1970.15  1974.74
                             2178.59  2179.25  2367.40  2368.19  4529.08
                             4546.35  4547.13  4572.57  4573.45  4588.78

 Zero-point correction=                           0.099971 (Hartree/Particle)
 Thermal correction to Energy=                    0.104405
 Thermal correction to Enthalpy=                  0.105349
 Thermal correction to Gibbs Free Energy=         0.072476
 Sum of electronic and zero-point Energies=           -232.022442
 Sum of electronic and thermal Energies=              -232.018007
 Sum of electronic and thermal Enthalpies=            -232.017063
 Sum of electronic and thermal Free Energies=         -232.049937

                     E (Thermal)             CV                S
                      KCal/Mol        Cal/Mol-Kelvin    Cal/Mol-Kelvin
 Total                   65.515             17.336             69.188
 Electronic               0.000              0.000              0.000
 Translational            0.889              2.981             38.979
 Rotational               0.889              2.981             25.679
 Vibrational             63.738             11.374              4.531
 Vibration     1          0.770              1.458              0.943
 Vibration     2          0.770              1.458              0.943
 Vibration     3          0.965              1.019              0.439
 Vibration     4          0.965              1.018              0.439

 Optimization completed.
    -- Stationary point found.
 Normal termination of Gaussian 16 at Wed Nov 25 11:47:56 2020.
