                         Program Version 4.2.0 -  RELEASE  -
|  1> ! wB97M-V def2-TZVPP def2-tzvpp/c def2/j tightscf rijcosx GRID6
|  2>
|  3> %pal
|  4> nprocs 24
|  5> end
|  6>
|  7> * xyz 0 1
|  8> C      0.1632960000   -1.3905460000    0.0000000000
|  9> C     -1.1226690000   -0.8366810000    0.0000090000
| 10> C     -1.2859760000    0.5538630000   -0.0000080000
| 11> C     -0.1632720000    1.3905490000    0.0000010000
| 12> C      1.1226550000    0.8366990000    0.0000080000
| 13> C      1.2859670000   -0.5538840000   -0.0000080000
| 14> H      0.2908730000   -2.4776130000   -0.0000060000
| 15> H     -2.0002350000   -1.4907940000    0.0000080000
| 16> H     -2.2911850000    0.9869280000   -0.0000170000
| 17> H     -0.2909190000    2.4776080000   -0.0000010000
| 18> H      2.0002620000    1.4907570000    0.0000030000
| 19> H      2.2912020000   -0.9868870000   -0.0000090000
| 20> *
| 21>
| 22>
| 23>                          ****END OF INPUT****

CARTESIAN COORDINATES (ANGSTROEM)
---------------------------------
  C      0.163296   -1.390546    0.000000
  C     -1.122669   -0.836681    0.000009
  C     -1.285976    0.553863   -0.000008
  C     -0.163272    1.390549    0.000001
  C      1.122655    0.836699    0.000008
  C      1.285967   -0.553884   -0.000008
  H      0.290873   -2.477613   -0.000006
  H     -2.000235   -1.490794    0.000008
  H     -2.291185    0.986928   -0.000017
  H     -0.290919    2.477608   -0.000001
  H      2.000262    1.490757    0.000003
  H      2.291202   -0.986887   -0.000009

 Total Charge           Charge          ....    0
 Multiplicity           Mult            ....    1
 Number of Electrons    NEL             ....   42
 Basis Dimension        Dim             ....  270

ORBITAL ENERGIES
----------------

  NO   OCC          E(Eh)            E(eV)
   0   2.0000     -10.354650      -281.7644
   1   2.0000     -10.354462      -281.7592
   2   2.0000     -10.354443      -281.7587
   3   2.0000     -10.353958      -281.7455
   4   2.0000     -10.353940      -281.7450
   5   2.0000     -10.353721      -281.7391
   6   2.0000      -0.979910       -26.6647
   7   2.0000      -0.868553       -23.6345
   8   2.0000      -0.868538       -23.6341
   9   2.0000      -0.718114       -19.5409
  10   2.0000      -0.718099       -19.5405
  11   2.0000      -0.635046       -17.2805
  12   2.0000      -0.568361       -15.4659
  13   2.0000      -0.553241       -15.0544
  14   2.0000      -0.524911       -14.2835
  15   2.0000      -0.524886       -14.2829
  16   2.0000      -0.480721       -13.0811
  17   2.0000      -0.442929       -12.0527
  18   2.0000      -0.442927       -12.0526
  19   2.0000      -0.345978        -9.4145
  20   2.0000      -0.345946        -9.4137
  21   0.0000       0.062631         1.7043
  22   0.0000       0.062638         1.7045
  23   0.0000       0.109405         2.9771
  24   0.0000       0.139192         3.7876
  25   0.0000       0.139223         3.7885

MULLIKEN ATOMIC CHARGES
-----------------------
   0 C :   -0.122181
   1 C :   -0.117926
   2 C :   -0.126863
   3 C :   -0.121159
   4 C :   -0.122210
   5 C :   -0.123701
   6 H :    0.119781
   7 H :    0.122066
   8 H :    0.121983
   9 H :    0.123943
  10 H :    0.122398
  11 H :    0.123869
Sum of atomic charges:   -0.0000000

LOEWDIN ATOMIC CHARGES
----------------------
   0 C :   -0.019964
   1 C :   -0.019927
   2 C :   -0.020010
   3 C :   -0.019964
   4 C :   -0.019945
   5 C :   -0.019992
   6 H :    0.019946
   7 H :    0.019952
   8 H :    0.019985
   9 H :    0.019972
  10 H :    0.019953
  11 H :    0.019992

  Mayer bond orders larger than 0.100000
B(  0-C ,  1-C ) :   1.4243 B(  0-C ,  5-C ) :   1.4262 B(  0-C ,  6-H ) :   0.9684
B(  1-C ,  2-C ) :   1.4272 B(  1-C ,  7-H ) :   0.9653 B(  2-C ,  3-C ) :   1.4262
B(  2-C ,  8-H ) :   0.9672 B(  3-C ,  4-C ) :   1.4275 B(  3-C ,  9-H ) :   0.9645
B(  4-C ,  5-C ) :   1.4290 B(  4-C , 10-H ) :   0.9652 B(  5-C , 11-H ) :   0.9645

FINAL SINGLE POINT ENERGY      -232.228005721768

DIPOLE MOMENT
-------------
                                X             Y             Z
Electronic contribution:      0.00001      -0.00000       0.00002
Nuclear contribution   :     -0.00000      -0.00000      -0.00002
                        -----------------------------------------
Total Dipole Moment    :      0.00001      -0.00000      -0.00000
                        -----------------------------------------
Magnitude (a.u.)       :      0.00001
Magnitude (Debye)      :      0.00003

Rotational constants in cm-1:     0.188449     0.188432     0.094220
Rotational constants in MHz :  5649.556752  5649.063266  2824.654999

                             ****ORCA TERMINATED NORMALLY****
TOTAL RUN TIME: 0 days 0 hours 0 minutes 27 seconds 518 msec
